<?xml version="1.0" encoding="UTF-8"?>

<!-- generated on 2024-08-20 09:24:17 by Eclipse SUMO sumo Version 1.20.0
-->

<configuration xmlns:xsi="http://www.w3.org/2001/XMLSchema-instance" xsi:noNamespaceSchemaLocation="http://sumo.dlr.de/xsd/sumoConfiguration.xsd">

    <input>
        <net-file value="Teste_Extr_Pos_Bikes.net.xml"/>
        <route-files value="Teste_Extr_Pos_Bikes.rou.xml"/>
    </input>
    <netstate-dump value="test" />

</configuration>
